 Fermi distribution function

Calculation with static geometry


********************************************************************************
 iSCC Total electronic   Diff electronic      SCC error    
    5   -0.44473559E+01   -0.33927794E-08    0.11182166E-11
********************************************************************************

 Total charge:     0.00000000

 Atomic gross charges (e)
 Atom           Charge
    1      -0.17180459
    2      -0.17180459
    3       0.17180459
    4       0.17180459

Nr. of electrons (up):     10.00000000
Atom populations (up)
 Atom       Population
    1       4.17180459
    2       4.17180459
    3       0.82819541
    4       0.82819541

l-shell populations (up)
 Atom Sh.   l       Population
    1   1   0       1.22580380
    1   2   1       2.94600078
    2   1   0       1.22580380
    2   2   1       2.94600078
    3   1   0       0.82819541
    4   1   0       0.82819541

Orbital populations (up)
 Atom Sh.   l   m       Population  Label
    1   1   0   0       1.22580380  s
    1   2   1  -1       1.00000000  p_y
    1   2   1   0       0.94600078  p_z
    1   2   1   1       1.00000000  p_x
    2   1   0   0       1.22580380  s
    2   2   1  -1       1.00000000  p_y
    2   2   1   0       0.94600078  p_z
    2   2   1   1       1.00000000  p_x
    3   1   0   0       0.82819541  s
    4   1   0   0       0.82819541  s

Fermi level:                        -0.1127925468 H           -3.0692 eV
Band energy:                        -4.2878008627 H         -116.6770 eV
TS:                                  0.0000000000 H            0.0000 eV
Band free energy (E-TS):            -4.2878008627 H         -116.6770 eV
Extrapolated E(0K):                 -4.2878008627 H         -116.6770 eV
Input / Output electrons (q):     10.0000000000     10.0000000000

Energy H0:                          -4.4517768170 H         -121.1390 eV
Energy SCC:                          0.0044209069 H            0.1203 eV
Total Electronic energy:            -4.4473559101 H         -121.0187 eV
Repulsive energy:                    0.0000000000 H            0.0000 eV
Total energy:                       -4.4473559101 H         -121.0187 eV
Extrapolated to 0:                  -4.4473559101 H         -121.0187 eV
Total Mermin free energy:           -4.4473559101 H         -121.0187 eV
Force related energy:               -4.4473559101 H         -121.0187 eV

Non-constrained calculation

SCC converged

Total Forces
    1      0.000000000000     -0.000000000000     -0.562057366922
    2     -0.000000000000      0.000000000000      0.562057366922
    3     -0.000000000000     -0.000000000000     -0.112153363861
    4     -0.000000000000      0.000000000000      0.112153363861

Maximal derivative component:        0.562057E+00 au

Dipole moment:    0.00000000    0.00000000    0.00000000 au
Dipole moment:    0.00000000    0.00000000    0.00000000 Debye


